V -t * -v 1.0a5 -a 0
A -t * -n 1 -p 0 -o 0x7fffffff -c 30 -a 1
A -t * -h 1 -m 1073741823 -s 0
n -t * -a 4 -s 4 -S UP -v circle -c black -i black
n -t * -a 0 -s 0 -S UP -v circle -c black -i black
n -t * -a 1 -s 1 -S UP -v circle -c black -i black
n -t * -a 2 -s 2 -S UP -v circle -c black -i black
n -t * -a 3 -s 3 -S UP -v circle -c black -i black
l -t * -s 0 -d 1 -S UP -r 1000000 -D 0.01 -c black
l -t * -s 1 -d 2 -S UP -r 1000000 -D 0.01 -c black
l -t * -s 2 -d 3 -S UP -r 1000000 -D 0.01 -c black
l -t * -s 3 -d 4 -S UP -r 1000000 -D 0.01 -c black
+ -t 0 -s 0 -d 1 -p cbr -e 500 -c 0 -i 0 -a 0 -x {0.0 1.1 0 ------- null}
- -t 0 -s 0 -d 1 -p cbr -e 500 -c 0 -i 0 -a 0 -x {0.0 1.1 0 ------- null}
h -t 0 -s 0 -d 1 -p cbr -e 500 -c 0 -i 0 -a 0 -x {0.0 1.1 -1 ------- null}
+ -t 0.005 -s 0 -d 1 -p cbr -e 500 -c 0 -i 1 -a 0 -x {0.0 1.1 1 ------- null}
- -t 0.005 -s 0 -d 1 -p cbr -e 500 -c 0 -i 1 -a 0 -x {0.0 1.1 1 ------- null}
h -t 0.005 -s 0 -d 1 -p cbr -e 500 -c 0 -i 1 -a 0 -x {0.0 1.1 -1 ------- null}
+ -t 0.01 -s 0 -d 1 -p cbr -e 500 -c 0 -i 2 -a 0 -x {0.0 1.1 2 ------- null}
- -t 0.01 -s 0 -d 1 -p cbr -e 500 -c 0 -i 2 -a 0 -x {0.0 1.1 2 ------- null}
h -t 0.01 -s 0 -d 1 -p cbr -e 500 -c 0 -i 2 -a 0 -x {0.0 1.1 -1 ------- null}
r -t 0.014 -s 0 -d 1 -p cbr -e 500 -c 0 -i 0 -a 0 -x {0.0 1.1 0 ------- null}
+ -t 0.015 -s 0 -d 1 -p cbr -e 500 -c 0 -i 3 -a 0 -x {0.0 1.1 3 ------- null}
- -t 0.015 -s 0 -d 1 -p cbr -e 500 -c 0 -i 3 -a 0 -x {0.0 1.1 3 ------- null}
h -t 0.015 -s 0 -d 1 -p cbr -e 500 -c 0 -i 3 -a 0 -x {0.0 1.1 -1 ------- null}
r -t 0.019 -s 0 -d 1 -p cbr -e 500 -c 0 -i 1 -a 0 -x {0.0 1.1 1 ------- null}
+ -t 0.02 -s 0 -d 1 -p cbr -e 500 -c 0 -i 4 -a 0 -x {0.0 1.1 4 ------- null}
- -t 0.02 -s 0 -d 1 -p cbr -e 500 -c 0 -i 4 -a 0 -x {0.0 1.1 4 ------- null}
h -t 0.02 -s 0 -d 1 -p cbr -e 500 -c 0 -i 4 -a 0 -x {0.0 1.1 -1 ------- null}
r -t 0.024 -s 0 -d 1 -p cbr -e 500 -c 0 -i 2 -a 0 -x {0.0 1.1 2 ------- null}
+ -t 0.025 -s 0 -d 1 -p cbr -e 500 -c 0 -i 5 -a 0 -x {0.0 1.1 5 ------- null}
- -t 0.025 -s 0 -d 1 -p cbr -e 500 -c 0 -i 5 -a 0 -x {0.0 1.1 5 ------- null}
h -t 0.025 -s 0 -d 1 -p cbr -e 500 -c 0 -i 5 -a 0 -x {0.0 1.1 -1 ------- null}
r -t 0.029 -s 0 -d 1 -p cbr -e 500 -c 0 -i 3 -a 0 -x {0.0 1.1 3 ------- null}
+ -t 0.03 -s 0 -d 1 -p cbr -e 500 -c 0 -i 6 -a 0 -x {0.0 1.1 6 ------- null}
- -t 0.03 -s 0 -d 1 -p cbr -e 500 -c 0 -i 6 -a 0 -x {0.0 1.1 6 ------- null}
h -t 0.03 -s 0 -d 1 -p cbr -e 500 -c 0 -i 6 -a 0 -x {0.0 1.1 -1 ------- null}
r -t 0.034 -s 0 -d 1 -p cbr -e 500 -c 0 -i 4 -a 0 -x {0.0 1.1 4 ------- null}
+ -t 0.035 -s 0 -d 1 -p cbr -e 500 -c 0 -i 7 -a 0 -x {0.0 1.1 7 ------- null}
- -t 0.035 -s 0 -d 1 -p cbr -e 500 -c 0 -i 7 -a 0 -x {0.0 1.1 7 ------- null}
h -t 0.035 -s 0 -d 1 -p cbr -e 500 -c 0 -i 7 -a 0 -x {0.0 1.1 -1 ------- null}
r -t 0.039 -s 0 -d 1 -p cbr -e 500 -c 0 -i 5 -a 0 -x {0.0 1.1 5 ------- null}
+ -t 0.04 -s 0 -d 1 -p cbr -e 500 -c 0 -i 8 -a 0 -x {0.0 1.1 8 ------- null}
- -t 0.04 -s 0 -d 1 -p cbr -e 500 -c 0 -i 8 -a 0 -x {0.0 1.1 8 ------- null}
h -t 0.04 -s 0 -d 1 -p cbr -e 500 -c 0 -i 8 -a 0 -x {0.0 1.1 -1 ------- null}
r -t 0.044 -s 0 -d 1 -p cbr -e 500 -c 0 -i 6 -a 0 -x {0.0 1.1 6 ------- null}
+ -t 0.045 -s 0 -d 1 -p cbr -e 500 -c 0 -i 9 -a 0 -x {0.0 1.1 9 ------- null}
- -t 0.045 -s 0 -d 1 -p cbr -e 500 -c 0 -i 9 -a 0 -x {0.0 1.1 9 ------- null}
h -t 0.045 -s 0 -d 1 -p cbr -e 500 -c 0 -i 9 -a 0 -x {0.0 1.1 -1 ------- null}
r -t 0.049 -s 0 -d 1 -p cbr -e 500 -c 0 -i 7 -a 0 -x {0.0 1.1 7 ------- null}
+ -t 0.05 -s 0 -d 1 -p cbr -e 500 -c 0 -i 10 -a 0 -x {0.0 1.1 10 ------- null}
- -t 0.05 -s 0 -d 1 -p cbr -e 500 -c 0 -i 10 -a 0 -x {0.0 1.1 10 ------- null}
h -t 0.05 -s 0 -d 1 -p cbr -e 500 -c 0 -i 10 -a 0 -x {0.0 1.1 -1 ------- null}
r -t 0.054 -s 0 -d 1 -p cbr -e 500 -c 0 -i 8 -a 0 -x {0.0 1.1 8 ------- null}
+ -t 0.055 -s 0 -d 1 -p cbr -e 500 -c 0 -i 11 -a 0 -x {0.0 1.1 11 ------- null}
- -t 0.055 -s 0 -d 1 -p cbr -e 500 -c 0 -i 11 -a 0 -x {0.0 1.1 11 ------- null}
h -t 0.055 -s 0 -d 1 -p cbr -e 500 -c 0 -i 11 -a 0 -x {0.0 1.1 -1 ------- null}
r -t 0.059 -s 0 -d 1 -p cbr -e 500 -c 0 -i 9 -a 0 -x {0.0 1.1 9 ------- null}
+ -t 0.06 -s 0 -d 1 -p cbr -e 500 -c 0 -i 12 -a 0 -x {0.0 1.1 12 ------- null}
- -t 0.06 -s 0 -d 1 -p cbr -e 500 -c 0 -i 12 -a 0 -x {0.0 1.1 12 ------- null}
h -t 0.06 -s 0 -d 1 -p cbr -e 500 -c 0 -i 12 -a 0 -x {0.0 1.1 -1 ------- null}
r -t 0.064 -s 0 -d 1 -p cbr -e 500 -c 0 -i 10 -a 0 -x {0.0 1.1 10 ------- null}
+ -t 0.065 -s 0 -d 1 -p cbr -e 500 -c 0 -i 13 -a 0 -x {0.0 1.1 13 ------- null}
- -t 0.065 -s 0 -d 1 -p cbr -e 500 -c 0 -i 13 -a 0 -x {0.0 1.1 13 ------- null}
h -t 0.065 -s 0 -d 1 -p cbr -e 500 -c 0 -i 13 -a 0 -x {0.0 1.1 -1 ------- null}
r -t 0.069 -s 0 -d 1 -p cbr -e 500 -c 0 -i 11 -a 0 -x {0.0 1.1 11 ------- null}
+ -t 0.07 -s 0 -d 1 -p cbr -e 500 -c 0 -i 14 -a 0 -x {0.0 1.1 14 ------- null}
- -t 0.07 -s 0 -d 1 -p cbr -e 500 -c 0 -i 14 -a 0 -x {0.0 1.1 14 ------- null}
h -t 0.07 -s 0 -d 1 -p cbr -e 500 -c 0 -i 14 -a 0 -x {0.0 1.1 -1 ------- null}
r -t 0.074 -s 0 -d 1 -p cbr -e 500 -c 0 -i 12 -a 0 -x {0.0 1.1 12 ------- null}
+ -t 0.075 -s 0 -d 1 -p cbr -e 500 -c 0 -i 15 -a 0 -x {0.0 1.1 15 ------- null}
- -t 0.075 -s 0 -d 1 -p cbr -e 500 -c 0 -i 15 -a 0 -x {0.0 1.1 15 ------- null}
h -t 0.075 -s 0 -d 1 -p cbr -e 500 -c 0 -i 15 -a 0 -x {0.0 1.1 -1 ------- null}
r -t 0.079 -s 0 -d 1 -p cbr -e 500 -c 0 -i 13 -a 0 -x {0.0 1.1 13 ------- null}
+ -t 0.08 -s 0 -d 1 -p cbr -e 500 -c 0 -i 16 -a 0 -x {0.0 1.1 16 ------- null}
- -t 0.08 -s 0 -d 1 -p cbr -e 500 -c 0 -i 16 -a 0 -x {0.0 1.1 16 ------- null}
h -t 0.08 -s 0 -d 1 -p cbr -e 500 -c 0 -i 16 -a 0 -x {0.0 1.1 -1 ------- null}
r -t 0.084 -s 0 -d 1 -p cbr -e 500 -c 0 -i 14 -a 0 -x {0.0 1.1 14 ------- null}
+ -t 0.085 -s 0 -d 1 -p cbr -e 500 -c 0 -i 17 -a 0 -x {0.0 1.1 17 ------- null}
- -t 0.085 -s 0 -d 1 -p cbr -e 500 -c 0 -i 17 -a 0 -x {0.0 1.1 17 ------- null}
h -t 0.085 -s 0 -d 1 -p cbr -e 500 -c 0 -i 17 -a 0 -x {0.0 1.1 -1 ------- null}
r -t 0.089 -s 0 -d 1 -p cbr -e 500 -c 0 -i 15 -a 0 -x {0.0 1.1 15 ------- null}
+ -t 0.09 -s 0 -d 1 -p cbr -e 500 -c 0 -i 18 -a 0 -x {0.0 1.1 18 ------- null}
- -t 0.09 -s 0 -d 1 -p cbr -e 500 -c 0 -i 18 -a 0 -x {0.0 1.1 18 ------- null}
h -t 0.09 -s 0 -d 1 -p cbr -e 500 -c 0 -i 18 -a 0 -x {0.0 1.1 -1 ------- null}
r -t 0.094 -s 0 -d 1 -p cbr -e 500 -c 0 -i 16 -a 0 -x {0.0 1.1 16 ------- null}
+ -t 0.095 -s 0 -d 1 -p cbr -e 500 -c 0 -i 19 -a 0 -x {0.0 1.1 19 ------- null}
- -t 0.095 -s 0 -d 1 -p cbr -e 500 -c 0 -i 19 -a 0 -x {0.0 1.1 19 ------- null}
h -t 0.095 -s 0 -d 1 -p cbr -e 500 -c 0 -i 19 -a 0 -x {0.0 1.1 -1 ------- null}
r -t 0.099 -s 0 -d 1 -p cbr -e 500 -c 0 -i 17 -a 0 -x {0.0 1.1 17 ------- null}
+ -t 0.1 -s 0 -d 1 -p cbr -e 500 -c 0 -i 20 -a 0 -x {0.0 1.1 20 ------- null}
- -t 0.1 -s 0 -d 1 -p cbr -e 500 -c 0 -i 20 -a 0 -x {0.0 1.1 20 ------- null}
h -t 0.1 -s 0 -d 1 -p cbr -e 500 -c 0 -i 20 -a 0 -x {0.0 1.1 -1 ------- null}
r -t 0.104 -s 0 -d 1 -p cbr -e 500 -c 0 -i 18 -a 0 -x {0.0 1.1 18 ------- null}
+ -t 0.105 -s 0 -d 1 -p cbr -e 500 -c 0 -i 21 -a 0 -x {0.0 1.1 21 ------- null}
- -t 0.105 -s 0 -d 1 -p cbr -e 500 -c 0 -i 21 -a 0 -x {0.0 1.1 21 ------- null}
h -t 0.105 -s 0 -d 1 -p cbr -e 500 -c 0 -i 21 -a 0 -x {0.0 1.1 -1 ------- null}
r -t 0.109 -s 0 -d 1 -p cbr -e 500 -c 0 -i 19 -a 0 -x {0.0 1.1 19 ------- null}
+ -t 0.11 -s 0 -d 1 -p cbr -e 500 -c 0 -i 22 -a 0 -x {0.0 1.1 22 ------- null}
- -t 0.11 -s 0 -d 1 -p cbr -e 500 -c 0 -i 22 -a 0 -x {0.0 1.1 22 ------- null}
h -t 0.11 -s 0 -d 1 -p cbr -e 500 -c 0 -i 22 -a 0 -x {0.0 1.1 -1 ------- null}
r -t 0.114 -s 0 -d 1 -p cbr -e 500 -c 0 -i 20 -a 0 -x {0.0 1.1 20 ------- null}
+ -t 0.115 -s 0 -d 1 -p cbr -e 500 -c 0 -i 23 -a 0 -x {0.0 1.1 23 ------- null}
- -t 0.115 -s 0 -d 1 -p cbr -e 500 -c 0 -i 23 -a 0 -x {0.0 1.1 23 ------- null}
h -t 0.115 -s 0 -d 1 -p cbr -e 500 -c 0 -i 23 -a 0 -x {0.0 1.1 -1 ------- null}
r -t 0.119 -s 0 -d 1 -p cbr -e 500 -c 0 -i 21 -a 0 -x {0.0 1.1 21 ------- null}
+ -t 0.12 -s 0 -d 1 -p cbr -e 500 -c 0 -i 24 -a 0 -x {0.0 1.1 24 ------- null}
- -t 0.12 -s 0 -d 1 -p cbr -e 500 -c 0 -i 24 -a 0 -x {0.0 1.1 24 ------- null}
h -t 0.12 -s 0 -d 1 -p cbr -e 500 -c 0 -i 24 -a 0 -x {0.0 1.1 -1 ------- null}
r -t 0.124 -s 0 -d 1 -p cbr -e 500 -c 0 -i 22 -a 0 -x {0.0 1.1 22 ------- null}
+ -t 0.125 -s 0 -d 1 -p cbr -e 500 -c 0 -i 25 -a 0 -x {0.0 1.1 25 ------- null}
- -t 0.125 -s 0 -d 1 -p cbr -e 500 -c 0 -i 25 -a 0 -x {0.0 1.1 25 ------- null}
h -t 0.125 -s 0 -d 1 -p cbr -e 500 -c 0 -i 25 -a 0 -x {0.0 1.1 -1 ------- null}
r -t 0.129 -s 0 -d 1 -p cbr -e 500 -c 0 -i 23 -a 0 -x {0.0 1.1 23 ------- null}
+ -t 0.13 -s 0 -d 1 -p cbr -e 500 -c 0 -i 26 -a 0 -x {0.0 1.1 26 ------- null}
- -t 0.13 -s 0 -d 1 -p cbr -e 500 -c 0 -i 26 -a 0 -x {0.0 1.1 26 ------- null}
h -t 0.13 -s 0 -d 1 -p cbr -e 500 -c 0 -i 26 -a 0 -x {0.0 1.1 -1 ------- null}
r -t 0.134 -s 0 -d 1 -p cbr -e 500 -c 0 -i 24 -a 0 -x {0.0 1.1 24 ------- null}
+ -t 0.135 -s 0 -d 1 -p cbr -e 500 -c 0 -i 27 -a 0 -x {0.0 1.1 27 ------- null}
- -t 0.135 -s 0 -d 1 -p cbr -e 500 -c 0 -i 27 -a 0 -x {0.0 1.1 27 ------- null}
h -t 0.135 -s 0 -d 1 -p cbr -e 500 -c 0 -i 27 -a 0 -x {0.0 1.1 -1 ------- null}
r -t 0.139 -s 0 -d 1 -p cbr -e 500 -c 0 -i 25 -a 0 -x {0.0 1.1 25 ------- null}
+ -t 0.14 -s 0 -d 1 -p cbr -e 500 -c 0 -i 28 -a 0 -x {0.0 1.1 28 ------- null}
- -t 0.14 -s 0 -d 1 -p cbr -e 500 -c 0 -i 28 -a 0 -x {0.0 1.1 28 ------- null}
h -t 0.14 -s 0 -d 1 -p cbr -e 500 -c 0 -i 28 -a 0 -x {0.0 1.1 -1 ------- null}
r -t 0.144 -s 0 -d 1 -p cbr -e 500 -c 0 -i 26 -a 0 -x {0.0 1.1 26 ------- null}
+ -t 0.145 -s 0 -d 1 -p cbr -e 500 -c 0 -i 29 -a 0 -x {0.0 1.1 29 ------- null}
- -t 0.145 -s 0 -d 1 -p cbr -e 500 -c 0 -i 29 -a 0 -x {0.0 1.1 29 ------- null}
h -t 0.145 -s 0 -d 1 -p cbr -e 500 -c 0 -i 29 -a 0 -x {0.0 1.1 -1 ------- null}
r -t 0.149 -s 0 -d 1 -p cbr -e 500 -c 0 -i 27 -a 0 -x {0.0 1.1 27 ------- null}
+ -t 0.15 -s 0 -d 1 -p cbr -e 500 -c 0 -i 30 -a 0 -x {0.0 1.1 30 ------- null}
- -t 0.15 -s 0 -d 1 -p cbr -e 500 -c 0 -i 30 -a 0 -x {0.0 1.1 30 ------- null}
h -t 0.15 -s 0 -d 1 -p cbr -e 500 -c 0 -i 30 -a 0 -x {0.0 1.1 -1 ------- null}
r -t 0.154 -s 0 -d 1 -p cbr -e 500 -c 0 -i 28 -a 0 -x {0.0 1.1 28 ------- null}
+ -t 0.155 -s 0 -d 1 -p cbr -e 500 -c 0 -i 31 -a 0 -x {0.0 1.1 31 ------- null}
- -t 0.155 -s 0 -d 1 -p cbr -e 500 -c 0 -i 31 -a 0 -x {0.0 1.1 31 ------- null}
h -t 0.155 -s 0 -d 1 -p cbr -e 500 -c 0 -i 31 -a 0 -x {0.0 1.1 -1 ------- null}
r -t 0.159 -s 0 -d 1 -p cbr -e 500 -c 0 -i 29 -a 0 -x {0.0 1.1 29 ------- null}
+ -t 0.16 -s 0 -d 1 -p cbr -e 500 -c 0 -i 32 -a 0 -x {0.0 1.1 32 ------- null}
- -t 0.16 -s 0 -d 1 -p cbr -e 500 -c 0 -i 32 -a 0 -x {0.0 1.1 32 ------- null}
h -t 0.16 -s 0 -d 1 -p cbr -e 500 -c 0 -i 32 -a 0 -x {0.0 1.1 -1 ------- null}
r -t 0.164 -s 0 -d 1 -p cbr -e 500 -c 0 -i 30 -a 0 -x {0.0 1.1 30 ------- null}
+ -t 0.165 -s 0 -d 1 -p cbr -e 500 -c 0 -i 33 -a 0 -x {0.0 1.1 33 ------- null}
- -t 0.165 -s 0 -d 1 -p cbr -e 500 -c 0 -i 33 -a 0 -x {0.0 1.1 33 ------- null}
h -t 0.165 -s 0 -d 1 -p cbr -e 500 -c 0 -i 33 -a 0 -x {0.0 1.1 -1 ------- null}
r -t 0.169 -s 0 -d 1 -p cbr -e 500 -c 0 -i 31 -a 0 -x {0.0 1.1 31 ------- null}
+ -t 0.17 -s 0 -d 1 -p cbr -e 500 -c 0 -i 34 -a 0 -x {0.0 1.1 34 ------- null}
- -t 0.17 -s 0 -d 1 -p cbr -e 500 -c 0 -i 34 -a 0 -x {0.0 1.1 34 ------- null}
h -t 0.17 -s 0 -d 1 -p cbr -e 500 -c 0 -i 34 -a 0 -x {0.0 1.1 -1 ------- null}
r -t 0.174 -s 0 -d 1 -p cbr -e 500 -c 0 -i 32 -a 0 -x {0.0 1.1 32 ------- null}
+ -t 0.175 -s 0 -d 1 -p cbr -e 500 -c 0 -i 35 -a 0 -x {0.0 1.1 35 ------- null}
- -t 0.175 -s 0 -d 1 -p cbr -e 500 -c 0 -i 35 -a 0 -x {0.0 1.1 35 ------- null}
h -t 0.175 -s 0 -d 1 -p cbr -e 500 -c 0 -i 35 -a 0 -x {0.0 1.1 -1 ------- null}
r -t 0.179 -s 0 -d 1 -p cbr -e 500 -c 0 -i 33 -a 0 -x {0.0 1.1 33 ------- null}
+ -t 0.18 -s 0 -d 1 -p cbr -e 500 -c 0 -i 36 -a 0 -x {0.0 1.1 36 ------- null}
- -t 0.18 -s 0 -d 1 -p cbr -e 500 -c 0 -i 36 -a 0 -x {0.0 1.1 36 ------- null}
h -t 0.18 -s 0 -d 1 -p cbr -e 500 -c 0 -i 36 -a 0 -x {0.0 1.1 -1 ------- null}
r -t 0.184 -s 0 -d 1 -p cbr -e 500 -c 0 -i 34 -a 0 -x {0.0 1.1 34 ------- null}
+ -t 0.185 -s 0 -d 1 -p cbr -e 500 -c 0 -i 37 -a 0 -x {0.0 1.1 37 ------- null}
- -t 0.185 -s 0 -d 1 -p cbr -e 500 -c 0 -i 37 -a 0 -x {0.0 1.1 37 ------- null}
h -t 0.185 -s 0 -d 1 -p cbr -e 500 -c 0 -i 37 -a 0 -x {0.0 1.1 -1 ------- null}
r -t 0.189 -s 0 -d 1 -p cbr -e 500 -c 0 -i 35 -a 0 -x {0.0 1.1 35 ------- null}
+ -t 0.19 -s 0 -d 1 -p cbr -e 500 -c 0 -i 38 -a 0 -x {0.0 1.1 38 ------- null}
- -t 0.19 -s 0 -d 1 -p cbr -e 500 -c 0 -i 38 -a 0 -x {0.0 1.1 38 ------- null}
h -t 0.19 -s 0 -d 1 -p cbr -e 500 -c 0 -i 38 -a 0 -x {0.0 1.1 -1 ------- null}
r -t 0.194 -s 0 -d 1 -p cbr -e 500 -c 0 -i 36 -a 0 -x {0.0 1.1 36 ------- null}
+ -t 0.195 -s 0 -d 1 -p cbr -e 500 -c 0 -i 39 -a 0 -x {0.0 1.1 39 ------- null}
- -t 0.195 -s 0 -d 1 -p cbr -e 500 -c 0 -i 39 -a 0 -x {0.0 1.1 39 ------- null}
h -t 0.195 -s 0 -d 1 -p cbr -e 500 -c 0 -i 39 -a 0 -x {0.0 1.1 -1 ------- null}
r -t 0.199 -s 0 -d 1 -p cbr -e 500 -c 0 -i 37 -a 0 -x {0.0 1.1 37 ------- null}
+ -t 0.2 -s 0 -d 1 -p cbr -e 500 -c 0 -i 40 -a 0 -x {0.0 1.1 40 ------- null}
- -t 0.2 -s 0 -d 1 -p cbr -e 500 -c 0 -i 40 -a 0 -x {0.0 1.1 40 ------- null}
h -t 0.2 -s 0 -d 1 -p cbr -e 500 -c 0 -i 40 -a 0 -x {0.0 1.1 -1 ------- null}
r -t 0.204 -s 0 -d 1 -p cbr -e 500 -c 0 -i 38 -a 0 -x {0.0 1.1 38 ------- null}
+ -t 0.205 -s 0 -d 1 -p cbr -e 500 -c 0 -i 41 -a 0 -x {0.0 1.1 41 ------- null}
- -t 0.205 -s 0 -d 1 -p cbr -e 500 -c 0 -i 41 -a 0 -x {0.0 1.1 41 ------- null}
h -t 0.205 -s 0 -d 1 -p cbr -e 500 -c 0 -i 41 -a 0 -x {0.0 1.1 -1 ------- null}
r -t 0.209 -s 0 -d 1 -p cbr -e 500 -c 0 -i 39 -a 0 -x {0.0 1.1 39 ------- null}
+ -t 0.21 -s 0 -d 1 -p cbr -e 500 -c 0 -i 42 -a 0 -x {0.0 1.1 42 ------- null}
- -t 0.21 -s 0 -d 1 -p cbr -e 500 -c 0 -i 42 -a 0 -x {0.0 1.1 42 ------- null}
h -t 0.21 -s 0 -d 1 -p cbr -e 500 -c 0 -i 42 -a 0 -x {0.0 1.1 -1 ------- null}
r -t 0.214 -s 0 -d 1 -p cbr -e 500 -c 0 -i 40 -a 0 -x {0.0 1.1 40 ------- null}
+ -t 0.215 -s 0 -d 1 -p cbr -e 500 -c 0 -i 43 -a 0 -x {0.0 1.1 43 ------- null}
- -t 0.215 -s 0 -d 1 -p cbr -e 500 -c 0 -i 43 -a 0 -x {0.0 1.1 43 ------- null}
h -t 0.215 -s 0 -d 1 -p cbr -e 500 -c 0 -i 43 -a 0 -x {0.0 1.1 -1 ------- null}
r -t 0.219 -s 0 -d 1 -p cbr -e 500 -c 0 -i 41 -a 0 -x {0.0 1.1 41 ------- null}
+ -t 0.22 -s 0 -d 1 -p cbr -e 500 -c 0 -i 44 -a 0 -x {0.0 1.1 44 ------- null}
- -t 0.22 -s 0 -d 1 -p cbr -e 500 -c 0 -i 44 -a 0 -x {0.0 1.1 44 ------- null}
h -t 0.22 -s 0 -d 1 -p cbr -e 500 -c 0 -i 44 -a 0 -x {0.0 1.1 -1 ------- null}
r -t 0.224 -s 0 -d 1 -p cbr -e 500 -c 0 -i 42 -a 0 -x {0.0 1.1 42 ------- null}
+ -t 0.225 -s 0 -d 1 -p cbr -e 500 -c 0 -i 45 -a 0 -x {0.0 1.1 45 ------- null}
- -t 0.225 -s 0 -d 1 -p cbr -e 500 -c 0 -i 45 -a 0 -x {0.0 1.1 45 ------- null}
h -t 0.225 -s 0 -d 1 -p cbr -e 500 -c 0 -i 45 -a 0 -x {0.0 1.1 -1 ------- null}
r -t 0.229 -s 0 -d 1 -p cbr -e 500 -c 0 -i 43 -a 0 -x {0.0 1.1 43 ------- null}
+ -t 0.23 -s 0 -d 1 -p cbr -e 500 -c 0 -i 46 -a 0 -x {0.0 1.1 46 ------- null}
- -t 0.23 -s 0 -d 1 -p cbr -e 500 -c 0 -i 46 -a 0 -x {0.0 1.1 46 ------- null}
h -t 0.23 -s 0 -d 1 -p cbr -e 500 -c 0 -i 46 -a 0 -x {0.0 1.1 -1 ------- null}
r -t 0.234 -s 0 -d 1 -p cbr -e 500 -c 0 -i 44 -a 0 -x {0.0 1.1 44 ------- null}
+ -t 0.235 -s 0 -d 1 -p cbr -e 500 -c 0 -i 47 -a 0 -x {0.0 1.1 47 ------- null}
- -t 0.235 -s 0 -d 1 -p cbr -e 500 -c 0 -i 47 -a 0 -x {0.0 1.1 47 ------- null}
h -t 0.235 -s 0 -d 1 -p cbr -e 500 -c 0 -i 47 -a 0 -x {0.0 1.1 -1 ------- null}
r -t 0.239 -s 0 -d 1 -p cbr -e 500 -c 0 -i 45 -a 0 -x {0.0 1.1 45 ------- null}
+ -t 0.24 -s 0 -d 1 -p cbr -e 500 -c 0 -i 48 -a 0 -x {0.0 1.1 48 ------- null}
- -t 0.24 -s 0 -d 1 -p cbr -e 500 -c 0 -i 48 -a 0 -x {0.0 1.1 48 ------- null}
h -t 0.24 -s 0 -d 1 -p cbr -e 500 -c 0 -i 48 -a 0 -x {0.0 1.1 -1 ------- null}
r -t 0.244 -s 0 -d 1 -p cbr -e 500 -c 0 -i 46 -a 0 -x {0.0 1.1 46 ------- null}
+ -t 0.245 -s 0 -d 1 -p cbr -e 500 -c 0 -i 49 -a 0 -x {0.0 1.1 49 ------- null}
- -t 0.245 -s 0 -d 1 -p cbr -e 500 -c 0 -i 49 -a 0 -x {0.0 1.1 49 ------- null}
h -t 0.245 -s 0 -d 1 -p cbr -e 500 -c 0 -i 49 -a 0 -x {0.0 1.1 -1 ------- null}
r -t 0.249 -s 0 -d 1 -p cbr -e 500 -c 0 -i 47 -a 0 -x {0.0 1.1 47 ------- null}
+ -t 0.25 -s 0 -d 1 -p cbr -e 500 -c 0 -i 50 -a 0 -x {0.0 1.1 50 ------- null}
- -t 0.25 -s 0 -d 1 -p cbr -e 500 -c 0 -i 50 -a 0 -x {0.0 1.1 50 ------- null}
h -t 0.25 -s 0 -d 1 -p cbr -e 500 -c 0 -i 50 -a 0 -x {0.0 1.1 -1 ------- null}
r -t 0.254 -s 0 -d 1 -p cbr -e 500 -c 0 -i 48 -a 0 -x {0.0 1.1 48 ------- null}
+ -t 0.255 -s 0 -d 1 -p cbr -e 500 -c 0 -i 51 -a 0 -x {0.0 1.1 51 ------- null}
- -t 0.255 -s 0 -d 1 -p cbr -e 500 -c 0 -i 51 -a 0 -x {0.0 1.1 51 ------- null}
h -t 0.255 -s 0 -d 1 -p cbr -e 500 -c 0 -i 51 -a 0 -x {0.0 1.1 -1 ------- null}
r -t 0.259 -s 0 -d 1 -p cbr -e 500 -c 0 -i 49 -a 0 -x {0.0 1.1 49 ------- null}
+ -t 0.26 -s 0 -d 1 -p cbr -e 500 -c 0 -i 52 -a 0 -x {0.0 1.1 52 ------- null}
- -t 0.26 -s 0 -d 1 -p cbr -e 500 -c 0 -i 52 -a 0 -x {0.0 1.1 52 ------- null}
h -t 0.26 -s 0 -d 1 -p cbr -e 500 -c 0 -i 52 -a 0 -x {0.0 1.1 -1 ------- null}
r -t 0.264 -s 0 -d 1 -p cbr -e 500 -c 0 -i 50 -a 0 -x {0.0 1.1 50 ------- null}
+ -t 0.265 -s 0 -d 1 -p cbr -e 500 -c 0 -i 53 -a 0 -x {0.0 1.1 53 ------- null}
- -t 0.265 -s 0 -d 1 -p cbr -e 500 -c 0 -i 53 -a 0 -x {0.0 1.1 53 ------- null}
h -t 0.265 -s 0 -d 1 -p cbr -e 500 -c 0 -i 53 -a 0 -x {0.0 1.1 -1 ------- null}
r -t 0.269 -s 0 -d 1 -p cbr -e 500 -c 0 -i 51 -a 0 -x {0.0 1.1 51 ------- null}
+ -t 0.27 -s 0 -d 1 -p cbr -e 500 -c 0 -i 54 -a 0 -x {0.0 1.1 54 ------- null}
- -t 0.27 -s 0 -d 1 -p cbr -e 500 -c 0 -i 54 -a 0 -x {0.0 1.1 54 ------- null}
h -t 0.27 -s 0 -d 1 -p cbr -e 500 -c 0 -i 54 -a 0 -x {0.0 1.1 -1 ------- null}
r -t 0.274 -s 0 -d 1 -p cbr -e 500 -c 0 -i 52 -a 0 -x {0.0 1.1 52 ------- null}
+ -t 0.275 -s 0 -d 1 -p cbr -e 500 -c 0 -i 55 -a 0 -x {0.0 1.1 55 ------- null}
- -t 0.275 -s 0 -d 1 -p cbr -e 500 -c 0 -i 55 -a 0 -x {0.0 1.1 55 ------- null}
h -t 0.275 -s 0 -d 1 -p cbr -e 500 -c 0 -i 55 -a 0 -x {0.0 1.1 -1 ------- null}
r -t 0.279 -s 0 -d 1 -p cbr -e 500 -c 0 -i 53 -a 0 -x {0.0 1.1 53 ------- null}
+ -t 0.28 -s 0 -d 1 -p cbr -e 500 -c 0 -i 56 -a 0 -x {0.0 1.1 56 ------- null}
- -t 0.28 -s 0 -d 1 -p cbr -e 500 -c 0 -i 56 -a 0 -x {0.0 1.1 56 ------- null}
h -t 0.28 -s 0 -d 1 -p cbr -e 500 -c 0 -i 56 -a 0 -x {0.0 1.1 -1 ------- null}
r -t 0.284 -s 0 -d 1 -p cbr -e 500 -c 0 -i 54 -a 0 -x {0.0 1.1 54 ------- null}
+ -t 0.285 -s 0 -d 1 -p cbr -e 500 -c 0 -i 57 -a 0 -x {0.0 1.1 57 ------- null}
- -t 0.285 -s 0 -d 1 -p cbr -e 500 -c 0 -i 57 -a 0 -x {0.0 1.1 57 ------- null}
h -t 0.285 -s 0 -d 1 -p cbr -e 500 -c 0 -i 57 -a 0 -x {0.0 1.1 -1 ------- null}
r -t 0.289 -s 0 -d 1 -p cbr -e 500 -c 0 -i 55 -a 0 -x {0.0 1.1 55 ------- null}
+ -t 0.29 -s 0 -d 1 -p cbr -e 500 -c 0 -i 58 -a 0 -x {0.0 1.1 58 ------- null}
- -t 0.29 -s 0 -d 1 -p cbr -e 500 -c 0 -i 58 -a 0 -x {0.0 1.1 58 ------- null}
h -t 0.29 -s 0 -d 1 -p cbr -e 500 -c 0 -i 58 -a 0 -x {0.0 1.1 -1 ------- null}
r -t 0.294 -s 0 -d 1 -p cbr -e 500 -c 0 -i 56 -a 0 -x {0.0 1.1 56 ------- null}
+ -t 0.295 -s 0 -d 1 -p cbr -e 500 -c 0 -i 59 -a 0 -x {0.0 1.1 59 ------- null}
- -t 0.295 -s 0 -d 1 -p cbr -e 500 -c 0 -i 59 -a 0 -x {0.0 1.1 59 ------- null}
h -t 0.295 -s 0 -d 1 -p cbr -e 500 -c 0 -i 59 -a 0 -x {0.0 1.1 -1 ------- null}
r -t 0.299 -s 0 -d 1 -p cbr -e 500 -c 0 -i 57 -a 0 -x {0.0 1.1 57 ------- null}
+ -t 0.3 -s 0 -d 1 -p cbr -e 500 -c 0 -i 60 -a 0 -x {0.0 1.1 60 ------- null}
- -t 0.3 -s 0 -d 1 -p cbr -e 500 -c 0 -i 60 -a 0 -x {0.0 1.1 60 ------- null}
h -t 0.3 -s 0 -d 1 -p cbr -e 500 -c 0 -i 60 -a 0 -x {0.0 1.1 -1 ------- null}
r -t 0.304 -s 0 -d 1 -p cbr -e 500 -c 0 -i 58 -a 0 -x {0.0 1.1 58 ------- null}
+ -t 0.305 -s 0 -d 1 -p cbr -e 500 -c 0 -i 61 -a 0 -x {0.0 1.1 61 ------- null}
- -t 0.305 -s 0 -d 1 -p cbr -e 500 -c 0 -i 61 -a 0 -x {0.0 1.1 61 ------- null}
h -t 0.305 -s 0 -d 1 -p cbr -e 500 -c 0 -i 61 -a 0 -x {0.0 1.1 -1 ------- null}
r -t 0.309 -s 0 -d 1 -p cbr -e 500 -c 0 -i 59 -a 0 -x {0.0 1.1 59 ------- null}
+ -t 0.31 -s 0 -d 1 -p cbr -e 500 -c 0 -i 62 -a 0 -x {0.0 1.1 62 ------- null}
- -t 0.31 -s 0 -d 1 -p cbr -e 500 -c 0 -i 62 -a 0 -x {0.0 1.1 62 ------- null}
h -t 0.31 -s 0 -d 1 -p cbr -e 500 -c 0 -i 62 -a 0 -x {0.0 1.1 -1 ------- null}
r -t 0.314 -s 0 -d 1 -p cbr -e 500 -c 0 -i 60 -a 0 -x {0.0 1.1 60 ------- null}
+ -t 0.315 -s 0 -d 1 -p cbr -e 500 -c 0 -i 63 -a 0 -x {0.0 1.1 63 ------- null}
- -t 0.315 -s 0 -d 1 -p cbr -e 500 -c 0 -i 63 -a 0 -x {0.0 1.1 63 ------- null}
h -t 0.315 -s 0 -d 1 -p cbr -e 500 -c 0 -i 63 -a 0 -x {0.0 1.1 -1 ------- null}
r -t 0.319 -s 0 -d 1 -p cbr -e 500 -c 0 -i 61 -a 0 -x {0.0 1.1 61 ------- null}
+ -t 0.32 -s 0 -d 1 -p cbr -e 500 -c 0 -i 64 -a 0 -x {0.0 1.1 64 ------- null}
- -t 0.32 -s 0 -d 1 -p cbr -e 500 -c 0 -i 64 -a 0 -x {0.0 1.1 64 ------- null}
h -t 0.32 -s 0 -d 1 -p cbr -e 500 -c 0 -i 64 -a 0 -x {0.0 1.1 -1 ------- null}
r -t 0.324 -s 0 -d 1 -p cbr -e 500 -c 0 -i 62 -a 0 -x {0.0 1.1 62 ------- null}
+ -t 0.325 -s 0 -d 1 -p cbr -e 500 -c 0 -i 65 -a 0 -x {0.0 1.1 65 ------- null}
- -t 0.325 -s 0 -d 1 -p cbr -e 500 -c 0 -i 65 -a 0 -x {0.0 1.1 65 ------- null}
h -t 0.325 -s 0 -d 1 -p cbr -e 500 -c 0 -i 65 -a 0 -x {0.0 1.1 -1 ------- null}
r -t 0.329 -s 0 -d 1 -p cbr -e 500 -c 0 -i 63 -a 0 -x {0.0 1.1 63 ------- null}
+ -t 0.33 -s 0 -d 1 -p cbr -e 500 -c 0 -i 66 -a 0 -x {0.0 1.1 66 ------- null}
- -t 0.33 -s 0 -d 1 -p cbr -e 500 -c 0 -i 66 -a 0 -x {0.0 1.1 66 ------- null}
h -t 0.33 -s 0 -d 1 -p cbr -e 500 -c 0 -i 66 -a 0 -x {0.0 1.1 -1 ------- null}
r -t 0.334 -s 0 -d 1 -p cbr -e 500 -c 0 -i 64 -a 0 -x {0.0 1.1 64 ------- null}
+ -t 0.335 -s 0 -d 1 -p cbr -e 500 -c 0 -i 67 -a 0 -x {0.0 1.1 67 ------- null}
- -t 0.335 -s 0 -d 1 -p cbr -e 500 -c 0 -i 67 -a 0 -x {0.0 1.1 67 ------- null}
h -t 0.335 -s 0 -d 1 -p cbr -e 500 -c 0 -i 67 -a 0 -x {0.0 1.1 -1 ------- null}
r -t 0.339 -s 0 -d 1 -p cbr -e 500 -c 0 -i 65 -a 0 -x {0.0 1.1 65 ------- null}
+ -t 0.34 -s 0 -d 1 -p cbr -e 500 -c 0 -i 68 -a 0 -x {0.0 1.1 68 ------- null}
- -t 0.34 -s 0 -d 1 -p cbr -e 500 -c 0 -i 68 -a 0 -x {0.0 1.1 68 ------- null}
h -t 0.34 -s 0 -d 1 -p cbr -e 500 -c 0 -i 68 -a 0 -x {0.0 1.1 -1 ------- null}
r -t 0.344 -s 0 -d 1 -p cbr -e 500 -c 0 -i 66 -a 0 -x {0.0 1.1 66 ------- null}
+ -t 0.345 -s 0 -d 1 -p cbr -e 500 -c 0 -i 69 -a 0 -x {0.0 1.1 69 ------- null}
- -t 0.345 -s 0 -d 1 -p cbr -e 500 -c 0 -i 69 -a 0 -x {0.0 1.1 69 ------- null}
h -t 0.345 -s 0 -d 1 -p cbr -e 500 -c 0 -i 69 -a 0 -x {0.0 1.1 -1 ------- null}
r -t 0.349 -s 0 -d 1 -p cbr -e 500 -c 0 -i 67 -a 0 -x {0.0 1.1 67 ------- null}
+ -t 0.35 -s 0 -d 1 -p cbr -e 500 -c 0 -i 70 -a 0 -x {0.0 1.1 70 ------- null}
- -t 0.35 -s 0 -d 1 -p cbr -e 500 -c 0 -i 70 -a 0 -x {0.0 1.1 70 ------- null}
h -t 0.35 -s 0 -d 1 -p cbr -e 500 -c 0 -i 70 -a 0 -x {0.0 1.1 -1 ------- null}
r -t 0.354 -s 0 -d 1 -p cbr -e 500 -c 0 -i 68 -a 0 -x {0.0 1.1 68 ------- null}
+ -t 0.355 -s 0 -d 1 -p cbr -e 500 -c 0 -i 71 -a 0 -x {0.0 1.1 71 ------- null}
- -t 0.355 -s 0 -d 1 -p cbr -e 500 -c 0 -i 71 -a 0 -x {0.0 1.1 71 ------- null}
h -t 0.355 -s 0 -d 1 -p cbr -e 500 -c 0 -i 71 -a 0 -x {0.0 1.1 -1 ------- null}
r -t 0.359 -s 0 -d 1 -p cbr -e 500 -c 0 -i 69 -a 0 -x {0.0 1.1 69 ------- null}
+ -t 0.36 -s 0 -d 1 -p cbr -e 500 -c 0 -i 72 -a 0 -x {0.0 1.1 72 ------- null}
- -t 0.36 -s 0 -d 1 -p cbr -e 500 -c 0 -i 72 -a 0 -x {0.0 1.1 72 ------- null}
h -t 0.36 -s 0 -d 1 -p cbr -e 500 -c 0 -i 72 -a 0 -x {0.0 1.1 -1 ------- null}
r -t 0.364 -s 0 -d 1 -p cbr -e 500 -c 0 -i 70 -a 0 -x {0.0 1.1 70 ------- null}
+ -t 0.365 -s 0 -d 1 -p cbr -e 500 -c 0 -i 73 -a 0 -x {0.0 1.1 73 ------- null}
- -t 0.365 -s 0 -d 1 -p cbr -e 500 -c 0 -i 73 -a 0 -x {0.0 1.1 73 ------- null}
h -t 0.365 -s 0 -d 1 -p cbr -e 500 -c 0 -i 73 -a 0 -x {0.0 1.1 -1 ------- null}
r -t 0.369 -s 0 -d 1 -p cbr -e 500 -c 0 -i 71 -a 0 -x {0.0 1.1 71 ------- null}
+ -t 0.37 -s 0 -d 1 -p cbr -e 500 -c 0 -i 74 -a 0 -x {0.0 1.1 74 ------- null}
- -t 0.37 -s 0 -d 1 -p cbr -e 500 -c 0 -i 74 -a 0 -x {0.0 1.1 74 ------- null}
h -t 0.37 -s 0 -d 1 -p cbr -e 500 -c 0 -i 74 -a 0 -x {0.0 1.1 -1 ------- null}
r -t 0.374 -s 0 -d 1 -p cbr -e 500 -c 0 -i 72 -a 0 -x {0.0 1.1 72 ------- null}
+ -t 0.375 -s 0 -d 1 -p cbr -e 500 -c 0 -i 75 -a 0 -x {0.0 1.1 75 ------- null}
- -t 0.375 -s 0 -d 1 -p cbr -e 500 -c 0 -i 75 -a 0 -x {0.0 1.1 75 ------- null}
h -t 0.375 -s 0 -d 1 -p cbr -e 500 -c 0 -i 75 -a 0 -x {0.0 1.1 -1 ------- null}
r -t 0.379 -s 0 -d 1 -p cbr -e 500 -c 0 -i 73 -a 0 -x {0.0 1.1 73 ------- null}
+ -t 0.38 -s 0 -d 1 -p cbr -e 500 -c 0 -i 76 -a 0 -x {0.0 1.1 76 ------- null}
- -t 0.38 -s 0 -d 1 -p cbr -e 500 -c 0 -i 76 -a 0 -x {0.0 1.1 76 ------- null}
h -t 0.38 -s 0 -d 1 -p cbr -e 500 -c 0 -i 76 -a 0 -x {0.0 1.1 -1 ------- null}
r -t 0.384 -s 0 -d 1 -p cbr -e 500 -c 0 -i 74 -a 0 -x {0.0 1.1 74 ------- null}
+ -t 0.385 -s 0 -d 1 -p cbr -e 500 -c 0 -i 77 -a 0 -x {0.0 1.1 77 ------- null}
- -t 0.385 -s 0 -d 1 -p cbr -e 500 -c 0 -i 77 -a 0 -x {0.0 1.1 77 ------- null}
h -t 0.385 -s 0 -d 1 -p cbr -e 500 -c 0 -i 77 -a 0 -x {0.0 1.1 -1 ------- null}
r -t 0.389 -s 0 -d 1 -p cbr -e 500 -c 0 -i 75 -a 0 -x {0.0 1.1 75 ------- null}
+ -t 0.39 -s 0 -d 1 -p cbr -e 500 -c 0 -i 78 -a 0 -x {0.0 1.1 78 ------- null}
- -t 0.39 -s 0 -d 1 -p cbr -e 500 -c 0 -i 78 -a 0 -x {0.0 1.1 78 ------- null}
h -t 0.39 -s 0 -d 1 -p cbr -e 500 -c 0 -i 78 -a 0 -x {0.0 1.1 -1 ------- null}
r -t 0.394 -s 0 -d 1 -p cbr -e 500 -c 0 -i 76 -a 0 -x {0.0 1.1 76 ------- null}
+ -t 0.395 -s 0 -d 1 -p cbr -e 500 -c 0 -i 79 -a 0 -x {0.0 1.1 79 ------- null}
- -t 0.395 -s 0 -d 1 -p cbr -e 500 -c 0 -i 79 -a 0 -x {0.0 1.1 79 ------- null}
h -t 0.395 -s 0 -d 1 -p cbr -e 500 -c 0 -i 79 -a 0 -x {0.0 1.1 -1 ------- null}
r -t 0.399 -s 0 -d 1 -p cbr -e 500 -c 0 -i 77 -a 0 -x {0.0 1.1 77 ------- null}
+ -t 0.4 -s 0 -d 1 -p cbr -e 500 -c 0 -i 80 -a 0 -x {0.0 1.1 80 ------- null}
- -t 0.4 -s 0 -d 1 -p cbr -e 500 -c 0 -i 80 -a 0 -x {0.0 1.1 80 ------- null}
h -t 0.4 -s 0 -d 1 -p cbr -e 500 -c 0 -i 80 -a 0 -x {0.0 1.1 -1 ------- null}
r -t 0.404 -s 0 -d 1 -p cbr -e 500 -c 0 -i 78 -a 0 -x {0.0 1.1 78 ------- null}
+ -t 0.405 -s 0 -d 1 -p cbr -e 500 -c 0 -i 81 -a 0 -x {0.0 1.1 81 ------- null}
- -t 0.405 -s 0 -d 1 -p cbr -e 500 -c 0 -i 81 -a 0 -x {0.0 1.1 81 ------- null}
h -t 0.405 -s 0 -d 1 -p cbr -e 500 -c 0 -i 81 -a 0 -x {0.0 1.1 -1 ------- null}
r -t 0.409 -s 0 -d 1 -p cbr -e 500 -c 0 -i 79 -a 0 -x {0.0 1.1 79 ------- null}
+ -t 0.41 -s 0 -d 1 -p cbr -e 500 -c 0 -i 82 -a 0 -x {0.0 1.1 82 ------- null}
- -t 0.41 -s 0 -d 1 -p cbr -e 500 -c 0 -i 82 -a 0 -x {0.0 1.1 82 ------- null}
h -t 0.41 -s 0 -d 1 -p cbr -e 500 -c 0 -i 82 -a 0 -x {0.0 1.1 -1 ------- null}
r -t 0.414 -s 0 -d 1 -p cbr -e 500 -c 0 -i 80 -a 0 -x {0.0 1.1 80 ------- null}
+ -t 0.415 -s 0 -d 1 -p cbr -e 500 -c 0 -i 83 -a 0 -x {0.0 1.1 83 ------- null}
- -t 0.415 -s 0 -d 1 -p cbr -e 500 -c 0 -i 83 -a 0 -x {0.0 1.1 83 ------- null}
h -t 0.415 -s 0 -d 1 -p cbr -e 500 -c 0 -i 83 -a 0 -x {0.0 1.1 -1 ------- null}
r -t 0.419 -s 0 -d 1 -p cbr -e 500 -c 0 -i 81 -a 0 -x {0.0 1.1 81 ------- null}
+ -t 0.42 -s 0 -d 1 -p cbr -e 500 -c 0 -i 84 -a 0 -x {0.0 1.1 84 ------- null}
- -t 0.42 -s 0 -d 1 -p cbr -e 500 -c 0 -i 84 -a 0 -x {0.0 1.1 84 ------- null}
h -t 0.42 -s 0 -d 1 -p cbr -e 500 -c 0 -i 84 -a 0 -x {0.0 1.1 -1 ------- null}
r -t 0.424 -s 0 -d 1 -p cbr -e 500 -c 0 -i 82 -a 0 -x {0.0 1.1 82 ------- null}
+ -t 0.425 -s 0 -d 1 -p cbr -e 500 -c 0 -i 85 -a 0 -x {0.0 1.1 85 ------- null}
- -t 0.425 -s 0 -d 1 -p cbr -e 500 -c 0 -i 85 -a 0 -x {0.0 1.1 85 ------- null}
h -t 0.425 -s 0 -d 1 -p cbr -e 500 -c 0 -i 85 -a 0 -x {0.0 1.1 -1 ------- null}
r -t 0.429 -s 0 -d 1 -p cbr -e 500 -c 0 -i 83 -a 0 -x {0.0 1.1 83 ------- null}
+ -t 0.43 -s 0 -d 1 -p cbr -e 500 -c 0 -i 86 -a 0 -x {0.0 1.1 86 ------- null}
- -t 0.43 -s 0 -d 1 -p cbr -e 500 -c 0 -i 86 -a 0 -x {0.0 1.1 86 ------- null}
h -t 0.43 -s 0 -d 1 -p cbr -e 500 -c 0 -i 86 -a 0 -x {0.0 1.1 -1 ------- null}
r -t 0.434 -s 0 -d 1 -p cbr -e 500 -c 0 -i 84 -a 0 -x {0.0 1.1 84 ------- null}
+ -t 0.435 -s 0 -d 1 -p cbr -e 500 -c 0 -i 87 -a 0 -x {0.0 1.1 87 ------- null}
- -t 0.435 -s 0 -d 1 -p cbr -e 500 -c 0 -i 87 -a 0 -x {0.0 1.1 87 ------- null}
h -t 0.435 -s 0 -d 1 -p cbr -e 500 -c 0 -i 87 -a 0 -x {0.0 1.1 -1 ------- null}
r -t 0.439 -s 0 -d 1 -p cbr -e 500 -c 0 -i 85 -a 0 -x {0.0 1.1 85 ------- null}
+ -t 0.44 -s 0 -d 1 -p cbr -e 500 -c 0 -i 88 -a 0 -x {0.0 1.1 88 ------- null}
- -t 0.44 -s 0 -d 1 -p cbr -e 500 -c 0 -i 88 -a 0 -x {0.0 1.1 88 ------- null}
h -t 0.44 -s 0 -d 1 -p cbr -e 500 -c 0 -i 88 -a 0 -x {0.0 1.1 -1 ------- null}
r -t 0.444 -s 0 -d 1 -p cbr -e 500 -c 0 -i 86 -a 0 -x {0.0 1.1 86 ------- null}
+ -t 0.445 -s 0 -d 1 -p cbr -e 500 -c 0 -i 89 -a 0 -x {0.0 1.1 89 ------- null}
- -t 0.445 -s 0 -d 1 -p cbr -e 500 -c 0 -i 89 -a 0 -x {0.0 1.1 89 ------- null}
h -t 0.445 -s 0 -d 1 -p cbr -e 500 -c 0 -i 89 -a 0 -x {0.0 1.1 -1 ------- null}
r -t 0.449 -s 0 -d 1 -p cbr -e 500 -c 0 -i 87 -a 0 -x {0.0 1.1 87 ------- null}
+ -t 0.45 -s 0 -d 1 -p cbr -e 500 -c 0 -i 90 -a 0 -x {0.0 1.1 90 ------- null}
- -t 0.45 -s 0 -d 1 -p cbr -e 500 -c 0 -i 90 -a 0 -x {0.0 1.1 90 ------- null}
h -t 0.45 -s 0 -d 1 -p cbr -e 500 -c 0 -i 90 -a 0 -x {0.0 1.1 -1 ------- null}
r -t 0.454 -s 0 -d 1 -p cbr -e 500 -c 0 -i 88 -a 0 -x {0.0 1.1 88 ------- null}
+ -t 0.455 -s 0 -d 1 -p cbr -e 500 -c 0 -i 91 -a 0 -x {0.0 1.1 91 ------- null}
- -t 0.455 -s 0 -d 1 -p cbr -e 500 -c 0 -i 91 -a 0 -x {0.0 1.1 91 ------- null}
h -t 0.455 -s 0 -d 1 -p cbr -e 500 -c 0 -i 91 -a 0 -x {0.0 1.1 -1 ------- null}
r -t 0.459 -s 0 -d 1 -p cbr -e 500 -c 0 -i 89 -a 0 -x {0.0 1.1 89 ------- null}
+ -t 0.46 -s 0 -d 1 -p cbr -e 500 -c 0 -i 92 -a 0 -x {0.0 1.1 92 ------- null}
- -t 0.46 -s 0 -d 1 -p cbr -e 500 -c 0 -i 92 -a 0 -x {0.0 1.1 92 ------- null}
h -t 0.46 -s 0 -d 1 -p cbr -e 500 -c 0 -i 92 -a 0 -x {0.0 1.1 -1 ------- null}
r -t 0.464 -s 0 -d 1 -p cbr -e 500 -c 0 -i 90 -a 0 -x {0.0 1.1 90 ------- null}